 Output coordinates in angstroms (scale by  1.889725989 to convert to a.u.)

  No.       Tag          Charge          X              Y              Z
 ---- ---------------- ---------- -------------- -------------- --------------
    1 H                    1.0000     0.00000000     0.00000000    -0.50000000
    2 H                    1.0000     0.00000000     0.00000000     0.50000000

         Total SCF energy =     -5.432542364636

 Vector    1  Occ=2.000000D+00  E=-5.252944D-01  Symmetry=a1g

 Vector    2  Occ=0.000000D+00  E= 5.489021D-02  Symmetry=a2u

 Vector    3  Occ=0.000000D+00  E= 7.090288D-02  Symmetry=a1g

 Vector    4  Occ=0.000000D+00  E= 1.980776D-01  Symmetry=a2u

 Vector    5  Occ=0.000000D+00  E= 2.741772D-01  Symmetry=eu

 Vector    6  Occ=0.000000D+00  E= 2.741772D-01  Symmetry=eu

 Vector    7  Occ=0.000000D+00  E= 4.102808D-01  Symmetry=a1g

 Vector    8  Occ=0.000000D+00  E= 4.429207D-01  Symmetry=eg

 Vector    9  Occ=0.000000D+00  E= 4.429207D-01  Symmetry=eg

 Vector   10  Occ=0.000000D+00  E= 6.010978D-01  Symmetry=a2u

 Vector   11  Occ=0.000000D+00  E= 7.653058D-01  Symmetry=a1g

       Multipole analysis of the density wrt the origin
       ------------------------------------------------

     L   x y z        total         open         nuclear
     -   - - -        -----         ----         -------
     0   0 0 0     -0.000000      0.000000      2.000000

     1   1 0 0     -0.000000      0.000000      0.000000
     1   0 1 0      0.000000      0.000000      0.000000
     1   0 0 1      0.000000      0.000000      0.000000

     2   2 0 0     -1.847704      0.000000      0.000000
     2   1 1 0      0.000000      0.000000      0.000000
     2   1 0 1     -0.000000      0.000000      0.000000
     2   0 2 0     -1.847704      0.000000      0.000000
     2   0 1 1      0.000000      0.000000      0.000000

 Total times  cpu:        0.4s     wall:        1.9s
