         Total SCF energy =     -1.066108670047

 Vector    1  Occ=2.000000D+00  E=-4.844417D-01  Symmetry=a1g

 Vector    2  Occ=0.000000D+00  E= 4.575020D-01  Symmetry=a2u

@ Step       Energy      Delta E   Gmax     Grms     Xrms     Xmax   Walltime
@ ---- ---------------- -------- -------- -------- -------- -------- --------
@    0      -1.06610867  0.0D+00  0.14857  0.14857  0.00000  0.00000      4.4
         Total SCF energy =     -1.104152599030

 Vector    1  Occ=2.000000D+00  E=-5.388308D-01  Symmetry=a1g

 Vector    2  Occ=0.000000D+00  E= 5.760719D-01  Symmetry=a2u

         Total SCF energy =     -0.997990620773

 Vector    1  Occ=2.000000D+00  E=-7.131471D-01  Symmetry=a1g

 Vector    2  Occ=0.000000D+00  E= 1.060403D+00  Symmetry=a2u

@    1      -0.99799062  6.8D-02  0.67090  0.67090  0.29567  0.51212     10.1
         Total SCF energy =     -1.071446050943

 Vector    1  Occ=2.000000D+00  E=-6.716230D-01  Symmetry=a1g

 Vector    2  Occ=0.000000D+00  E= 9.290822D-01  Symmetry=a2u

         Total SCF energy =     -1.102706970091

 Vector    1  Occ=2.000000D+00  E=-6.385229D-01  Symmetry=a1g

 Vector    2  Occ=0.000000D+00  E= 8.313546D-01  Symmetry=a2u

@    2      -1.10270697 -1.0D-01  0.16365  0.16365  0.08016  0.13885     16.6
         Total SCF energy =     -1.112619378512

 Vector    1  Occ=2.000000D+00  E=-6.186895D-01  Symmetry=a1g

 Vector    2  Occ=0.000000D+00  E= 7.759802D-01  Symmetry=a2u

         Total SCF energy =     -1.117010452641

 Vector    1  Occ=2.000000D+00  E=-5.994967D-01  Symmetry=a1g

 Vector    2  Occ=0.000000D+00  E= 7.246692D-01  Symmetry=a2u

@    3      -1.11701045 -1.4D-02  0.02489  0.02489  0.04678  0.08102     21.2
         Total SCF energy =     -1.117466787311

 Vector    1  Occ=2.000000D+00  E=-5.928449D-01  Symmetry=a1g

 Vector    2  Occ=0.000000D+00  E= 7.073963D-01  Symmetry=a2u

         Total SCF energy =     -1.117505366056

 Vector    1  Occ=2.000000D+00  E=-5.905216D-01  Symmetry=a1g

 Vector    2  Occ=0.000000D+00  E= 7.014238D-01  Symmetry=a2u

@    4      -1.11750537 -4.9D-04  0.00077  0.00077  0.01136  0.01967     29.7
         Total SCF energy =     -1.117505883069

 Vector    1  Occ=2.000000D+00  E=-5.902374D-01  Symmetry=a1g

 Vector    2  Occ=0.000000D+00  E= 7.006954D-01  Symmetry=a2u

         Total SCF energy =     -1.117505883069
@    5      -1.11750588 -5.2D-07  0.00005  0.00005  0.00036  0.00063     34.3
@    5      -1.11750588 -5.2D-07  0.00005  0.00005  0.00036  0.00063     34.3

 Output coordinates in angstroms (scale by  1.889725989 to convert to a.u.)

  No.       Tag          Charge          X              Y              Z
 ---- ---------------- ---------- -------------- -------------- --------------
    1 H                    1.0000     0.00000000     0.00000000    -0.35609230
    2 H                    1.0000     0.00000000     0.00000000     0.35609230

         Total SCF energy =     -1.117505883069

 Vector    1  Occ=2.000000D+00  E=-5.902374D-01

 Vector    2  Occ=0.000000D+00  E= 7.006954D-01

       Multipole analysis of the density wrt the origin
       ------------------------------------------------

     L   x y z        total         open         nuclear
     -   - - -        -----         ----         -------
     0   0 0 0     -0.000000      0.000000      2.000000

     1   1 0 0      0.000000      0.000000      0.000000
     1   0 1 0      0.000000      0.000000      0.000000
     1   0 0 1      0.000000      0.000000      0.000000

     2   2 0 0     -1.370227      0.000000      0.000000
     2   1 1 0      0.000000      0.000000      0.000000
     2   1 0 1      0.000000      0.000000      0.000000
     2   0 2 0     -1.370227      0.000000      0.000000
     2   0 1 1      0.000000      0.000000      0.000000

 Zero-Point correction to Energy  =    7.833 kcal/mol  (  0.012483 au)
 Thermal correction to Energy     =    9.314 kcal/mol  (  0.014842 au)
 Thermal correction to Enthalpy   =    9.906 kcal/mol  (  0.015786 au)
 Total Entropy                    =   30.951 cal/mol-K
   - Translational                =   28.068 cal/mol-K (mol. weight =   2.0156)
   - Rotational                   =    2.884 cal/mol-K (symmetry #  =        2)
   - Vibrational                  =    0.000 cal/mol-K
   - Translational                  =    2.979 cal/mol-K
   - Rotational                     =    1.986 cal/mol-K
   - Vibrational                    =    0.000 cal/mol-K
 P.Frequency       -0.00        0.00        0.00        0.00        0.00     5481.99

 Normal Eigenvalue ||           Projected Infra Red Intensities
  Mode   [cm**-1]  || [atomic units] [(debye/angs)**2] [(KM/mol)] [arbitrary]
 ------ ---------- || -------------- ----------------- ---------- -----------
    1       -0.000 ||    0.000000           0.000         0.000      19.768
    2        0.000 ||    0.000000           0.000         0.000      10.197
    3        0.000 ||    0.000000           0.000         0.000      10.197
    4        0.000 ||    0.000000           0.000         0.000       9.919
    5        0.000 ||    0.000000           0.000         0.000       9.919
    6     5481.993 ||    0.000000           0.000         0.000       0.000
 ----------------------------------------------------------------------------

 Total times  cpu:       13.2s     wall:       41.5s
